V -t * -v 1.0a5
n -t * -s 12318 -c black -i black
n -t * -s 12313 -c black -i black
n -t * -s 12312 -c blue -i blue
l -t * -s 12318 -d 12313 -c black
l -t * -s 12313 -d 12312 -c black
