V -t * -v 1.0a5
n -t * -s 12312 -c blue -i blue
n -t * -s 12311 -c blue -i blue
l -t * -s 12312 -d 12311 -c blue
